# vtk DataFile Version 3.0
Compress 3D
ASCII

DATASET UNSTRUCTURED_GRID

POINTS 16 double
30 10 0
30 10 10
30 0 0
30 0 10
0 10 0
0 10 10
0 0 0
0 0 10
10 10 10
20 10 10
10 0 10
20 0 10
10.3439 10 0
19.7564 10 0
10.3881 0 0
20.3343 0 0

CELLS 17 85
4 13 12 9 14
4 2 3 15 0
4 15 9 14 13
4 8 6 5 10
4 7 6 10 5
4 8 14 12 6
4 14 9 15 11
4 9 13 15 0
4 8 14 6 10
4 0 9 3 15
4 8 14 10 9
4 11 14 9 10
4 8 6 12 4
4 8 14 9 12
4 8 6 4 5
4 3 11 15 9
4 3 9 0 1

CELL_TYPES 17
10
10
10
10
10
10
10
10
10
10
10
10
10
10
10
10
10

CELL_DATA 17

SCALARS density double 1
LOOKUP_TABLE default
1.2
1.2
1.2
1.2
1.2
1.2
1.2
1.2
1.2
1.2
1.2
1.2
1.2
1.2
1.2
1.2
1.2

VECTORS velocity double
0 -6.49198e-11 -3.57059e-11
0 4.32799e-11 4.32799e-11
0 -8.15705e-11 5.51819e-11
0 1.0042e-10 -1.8394e-11
0 -2.16399e-11 0
-9.27636e-11 -3.50329e-11 -6.92478e-11
0 7.79038e-11 5.93242e-12
0 1.4066e-10 1.16195e-10
1.8394e-11 -9.73798e-12 -5.46998e-11
0 -2.15317e-10 -2.14235e-10
0 0 1.2984e-11
0 -1.8394e-11 -8.95997e-11
1.05231e-10 2.70499e-11 -1.623e-11
1.2984e-11 2.38039e-11 8.41897e-11
-1.7312e-11 -1.03666e-10 1.71213e-10
0 1.15774e-10 1.24224e-10
0 4.43619e-11 4.43619e-11

SCALARS pressure double 1
LOOKUP_TABLE default
100000
100000
100000
100000
100000
100000
100000
100000
100000
100000
100000
100000
100000
100000
100000
100000
100000
