# vtk DataFile Version 3.0
Compress 3D
ASCII

DATASET UNSTRUCTURED_GRID

POINTS 16 double
30 10 0
30 10 10
30 0 0
30 0 10
0 10 0
0 10 10
0 0 0
0 0 10
10 10 10
20 10 10
10 0 10
20 0 10
10.3439 10 0
19.7564 10 0
10.3881 0 0
20.3343 0 0

CELLS 17 85
4 13 12 9 14
4 2 3 15 0
4 15 9 14 13
4 8 6 5 10
4 7 6 10 5
4 8 14 12 6
4 14 9 15 11
4 9 13 15 0
4 8 14 6 10
4 0 9 3 15
4 8 14 10 9
4 11 14 9 10
4 8 6 12 4
4 8 14 9 12
4 8 6 4 5
4 3 11 15 9
4 3 9 0 1

CELL_TYPES 17
10
10
10
10
10
10
10
10
10
10
10
10
10
10
10
10
10

CELL_DATA 17

SCALARS density double 1
LOOKUP_TABLE default
1.2
1.19999
1.2
1.19999
1.20001
1.2
1.19999
1.2
1.2
1.20001
1.19999
1.20001
1.2
1.20001
1.2
1.2
1.20001

VECTORS velocity double
-0.00267101 0.000183539 -0.00434441
-0.00201736 0.0229932 0.0225202
-0.000127949 -0.00700974 -0.00120854
0.000437521 0.0135229 -0.00879315
-0.00226981 -0.0114944 0.00574595
-0.00894419 -0.00343274 0.000320677
-0.000511912 0.00202424 -0.00209906
0.000807929 0.0243204 0.0205147
0.00514431 -0.00509278 0.00178059
-0.000358189 -0.0407567 -0.0391305
-0.00259264 0.00127083 -0.000689325
0.000498464 -0.00453302 -0.0023331
0.00963704 0.00986057 -0.0057896
0.0053057 0.00347636 0.00323744
-0.00562708 -0.011261 0.00987645
0.00115276 0.0193426 0.0205725
0.00162827 0.0238652 0.0233756

SCALARS pressure double 1
LOOKUP_TABLE default
99999.9
99998.3
99999.9
99999.2
100001
99999.9
99999.3
99999.7
99999.9
100001
99999.2
100001
99999.9
100001
100000
99999.8
100001
