# vtk DataFile Version 3.0
example
ASCII

DATASET UNSTRUCTURED_GRID
POINTS 5 double
0 0 0
1 0 0
1 1 0
2 0 0
1 0 1
CELLS 2 10
4 0 1 2 4
4 1 3 2 4
CELL_TYPES 2
10
10

CELL_DATA 2
SCALARS pressure double 1
LOOKUP_TABLE default
0.3 
0.6
VECTORS velocity double
1 1 1 
2 2 2

