# vtk DataFile Version 3.0
Compress 3D
ASCII

DATASET UNSTRUCTURED_GRID

POINTS 16 double
30 10 0
30 10 10
30 0 0
30 0 10
0 10 0
0 10 10
0 0 0
0 0 10
10 10 10
20 10 10
10 0 10
20 0 10
10.3439 10 0
19.7564 10 0
10.3881 0 0
20.3343 0 0

CELLS 17 85
4 13 12 9 14
4 2 3 15 0
4 15 9 14 13
4 8 6 5 10
4 7 6 10 5
4 8 14 12 6
4 14 9 15 11
4 9 13 15 0
4 8 14 6 10
4 0 9 3 15
4 8 14 10 9
4 11 14 9 10
4 8 6 12 4
4 8 14 9 12
4 8 6 4 5
4 3 11 15 9
4 3 9 0 1

CELL_TYPES 17
10
10
10
10
10
10
10
10
10
10
10
10
10
10
10
10
10

CELL_DATA 17

SCALARS density double 1
LOOKUP_TABLE default
1.20015
1.20171
1.19994
1.20008
1.19961
1.19956
1.20051
1.20035
1.20071
1.19914
1.20053
1.19946
1.20032
1.19923
1.19981
1.2003
1.19858

VECTORS velocity double
0.326057 -0.072528 0.334435
0.245776 -2.93558 -2.86079
-0.0267127 0.783648 0.236546
-0.065241 -1.54744 1.0043
0.258309 1.36839 -0.747264
0.911726 0.361556 -0.053371
0.080996 -0.11539 0.306484
-0.100062 -2.83102 -2.48686
-0.538838 0.538936 -0.255329
0.0534723 5.04284 4.83582
0.312401 -0.177789 0.138719
-0.0962619 0.461244 0.100754
-1.02406 -1.05995 0.632615
-0.558832 -0.309565 -0.277972
0.63662 1.26302 -1.01872
-0.147236 -2.363 -2.4176
-0.176254 -3.03749 -2.95928

SCALARS pressure double 1
LOOKUP_TABLE default
100018
100196
99993.4
100009
99954
99948.5
100059
100038
100083
99887.3
100062
99937.3
100037
99909.8
99976.7
100032
99829.6
